<?xml version="1.0" encoding="UTF-8"?>

<!-- generated on 2022-06-24 13:56:26 by Eclipse SUMO sumo Version 1.12.0
<configuration xmlns:xsi="http://www.w3.org/2001/XMLSchema-instance" xsi:noNamespaceSchemaLocation="http://sumo.dlr.de/xsd/sumoConfiguration.xsd">

    <input>
        <net-file value="D:\CD\5G%2023.06..2022\5glab-ki-control\ki_5g_env/../scenario/./network/tostmannplatz.net.xml"/>
        <route-files value="D:\CD\5G%2023.06..2022\5glab-ki-control\ki_5g_env/../scenario/./network/demand.rou.xml"/>
        <additional-files value="D:\CD\5G%2023.06..2022\5glab-ki-control\ki_5g_env/../scenario/./network/routes.add.xml,D:\CD\5G%2023.06..2022\5glab-ki-control\ki_5g_env/../scenario/./network/siemens.det.add.xml,D:\CD\5G%2023.06..2022\5glab-ki-control\ki_5g_env/../scenario/./network/siemens.tls.add.xml,D:\CD\5G%2023.06..2022\5glab-ki-control\ki_5g_env/../scenario/./network/vtypes.add.xml"/>
    </input>

    <output>
        <output-prefix value="20220624-135626_"/>
        <tripinfo-output value="D:\CD\5G%2023.06..2022\5glab-ki-control\ki_5g_env/../outputs/sumo/recur_ppo_seed_None_learningrate_None_evsr_1600_1800_rew_factors_1_2_3_20_1_0_20220623-202220.zip/tripinfo.xml"/>
        <tripinfo-output.write-unfinished value="true"/>
    </output>

    <report>
        <no-warnings value="true"/>
        <duration-log.disable value="true"/>
        <no-step-log value="true"/>
    </report>

    <traci_server>
        <remote-port value="57949"/>
    </traci_server>

    <random_number>
        <seed value="544749736"/>
    </random_number>

</configuration>
-->

<tripinfos xmlns:xsi="http://www.w3.org/2001/XMLSchema-instance" xsi:noNamespaceSchemaLocation="http://sumo.dlr.de/xsd/tripinfo_file.xsd">
    <tripinfo id="WN.0" depart="0.00" departLane="-51812054_1" departPos="5.10" departSpeed="16.05" departDelay="0.00" arrival="66.00" arrivalLane="554747354_1" arrivalPos="141.46" arrivalSpeed="14.98" duration="66.00" routeLength="516.22" waitingTime="26.00" waitingCount="1" stopTime="0.00" timeLoss="33.40" rerouteNo="1" devices="tripinfo_WN.0 routing_WN.0" vType="DEFAULT_VEHTYPE" speedFactor="1.16" vaporized=""/>
    <tripinfo id="WN.1" depart="18.00" departLane="-51812054_1" departPos="5.10" departSpeed="14.24" departDelay="0.00" arrival="70.00" arrivalLane="554747354_1" arrivalPos="141.46" arrivalSpeed="12.99" duration="52.00" routeLength="516.22" waitingTime="8.00" waitingCount="1" stopTime="0.00" timeLoss="14.95" rerouteNo="1" devices="tripinfo_WN.1 routing_WN.1" vType="DEFAULT_VEHTYPE" speedFactor="1.02" vaporized=""/>
    <tripinfo id="WN.2" depart="29.00" departLane="-51812054_1" departPos="5.10" departSpeed="13.53" departDelay="0.00" arrival="72.00" arrivalLane="554747354_1" arrivalPos="141.46" arrivalSpeed="12.93" duration="43.00" routeLength="516.22" waitingTime="0.00" waitingCount="0" stopTime="0.00" timeLoss="4.58" rerouteNo="1" devices="tripinfo_WN.2 routing_WN.2" vType="DEFAULT_VEHTYPE" speedFactor="0.97" vaporized=""/>
    <tripinfo id="WN.3" depart="34.00" departLane="-51812054_1" departPos="5.10" departSpeed="13.02" departDelay="0.00" arrival="76.00" arrivalLane="554747354_1" arrivalPos="141.46" arrivalSpeed="12.74" duration="42.00" routeLength="516.22" waitingTime="0.00" waitingCount="0" stopTime="0.00" timeLoss="1.95" rerouteNo="1" devices="tripinfo_WN.3 routing_WN.3" vType="DEFAULT_VEHTYPE" speedFactor="0.94" vaporized=""/>
    <tripinfo id="SW.0" depart="5.00" departLane="gneE4_0" departPos="5.10" departSpeed="15.12" departDelay="0.00" arrival="99.00" arrivalLane="51812054_1" arrivalPos="107.60" arrivalSpeed="14.14" duration="94.00" routeLength="1323.06" waitingTime="0.00" waitingCount="0" stopTime="0.00" timeLoss="5.70" rerouteNo="1" devices="tripinfo_SW.0 routing_SW.0" vType="DEFAULT_VEHTYPE" speedFactor="1.09" vaporized=""/>
    <tripinfo id="SN.0" depart="14.00" departLane="gneE4_0" departPos="5.10" departSpeed="14.44" departDelay="0.00" arrival="108.00" arrivalLane="554747354_1" arrivalPos="141.46" arrivalSpeed="14.14" duration="94.00" routeLength="1294.40" waitingTime="0.00" waitingCount="0" stopTime="0.00" timeLoss="4.07" rerouteNo="1" devices="tripinfo_SN.0 routing_SN.0" vType="DEFAULT_VEHTYPE" speedFactor="1.04" vaporized=""/>
    <tripinfo id="NW.0" depart="11.00" departLane="gneE2_0" departPos="5.10" departSpeed="14.32" departDelay="0.00" arrival="112.00" arrivalLane="51812054_1" arrivalPos="107.60" arrivalSpeed="13.46" duration="101.00" routeLength="1381.92" waitingTime="0.00" waitingCount="0" stopTime="0.00" timeLoss="4.35" rerouteNo="1" devices="tripinfo_NW.0 routing_NW.0" vType="DEFAULT_VEHTYPE" speedFactor="1.03" vaporized=""/>
    <tripinfo id="SW.1" depart="18.00" departLane="gneE4_0" departPos="5.10" departSpeed="14.74" departDelay="0.00" arrival="116.00" arrivalLane="51812054_1" arrivalPos="107.60" arrivalSpeed="13.59" duration="98.00" routeLength="1323.06" waitingTime="0.00" waitingCount="0" stopTime="0.00" timeLoss="7.70" rerouteNo="1" devices="tripinfo_SW.1 routing_SW.1" vType="DEFAULT_VEHTYPE" speedFactor="1.06" vaporized=""/>
    <tripinfo id="EN.0" depart="17.00" departLane="51812135_1" departPos="5.10" departSpeed="8.91" departDelay="0.00" arrival="152.00" arrivalLane="554747354_1" arrivalPos="141.46" arrivalSpeed="13.93" duration="135.00" routeLength="472.55" waitingTime="81.00" waitingCount="2" stopTime="0.00" timeLoss="93.96" rerouteNo="1" devices="tripinfo_EN.0 routing_EN.0" vType="DEFAULT_VEHTYPE" speedFactor="1.07" vaporized=""/>
    <tripinfo id="WN.4" depart="71.00" departLane="-51812054_1" departPos="5.10" departSpeed="12.78" departDelay="0.00" arrival="159.00" arrivalLane="554747354_1" arrivalPos="141.46" arrivalSpeed="11.93" duration="88.00" routeLength="516.22" waitingTime="40.00" waitingCount="1" stopTime="0.00" timeLoss="47.22" rerouteNo="1" devices="tripinfo_WN.4 routing_WN.4" vType="DEFAULT_VEHTYPE" speedFactor="0.92" vaporized=""/>
    <tripinfo id="WN.5" depart="100.00" departLane="-51812054_1" departPos="5.10" departSpeed="13.09" departDelay="0.00" arrival="161.00" arrivalLane="554747354_1" arrivalPos="141.46" arrivalSpeed="12.41" duration="61.00" routeLength="516.22" waitingTime="13.00" waitingCount="1" stopTime="0.00" timeLoss="21.01" rerouteNo="1" devices="tripinfo_WN.5 routing_WN.5" vType="DEFAULT_VEHTYPE" speedFactor="0.94" vaporized=""/>
    <tripinfo id="NS.0" depart="0.00" departLane="gneE2_0" departPos="5.10" departSpeed="13.94" departDelay="0.00" arrival="163.00" arrivalLane="-gneE4_0" arrivalPos="780.06" arrivalSpeed="12.71" duration="163.00" routeLength="2169.05" waitingTime="0.00" waitingCount="0" stopTime="0.00" timeLoss="6.93" rerouteNo="1" devices="tripinfo_NS.0 routing_NS.0" vType="DEFAULT_VEHTYPE" speedFactor="1.00" vaporized=""/>
    <tripinfo id="WN.6" depart="105.00" departLane="-51812054_1" departPos="5.10" departSpeed="12.17" departDelay="1.00" arrival="163.00" arrivalLane="554747354_1" arrivalPos="141.46" arrivalSpeed="13.21" duration="58.00" routeLength="516.22" waitingTime="9.00" waitingCount="1" stopTime="0.00" timeLoss="20.26" rerouteNo="1" devices="tripinfo_WN.6 routing_WN.6" vType="DEFAULT_VEHTYPE" speedFactor="1.01" vaporized=""/>
    <tripinfo id="NS.1" depart="2.00" departLane="gneE2_0" departPos="5.10" departSpeed="14.07" departDelay="0.00" arrival="165.00" arrivalLane="-gneE4_0" arrivalPos="780.06" arrivalSpeed="13.74" duration="163.00" routeLength="2169.05" waitingTime="0.00" waitingCount="0" stopTime="0.00" timeLoss="8.24" rerouteNo="1" devices="tripinfo_NS.1 routing_NS.1" vType="DEFAULT_VEHTYPE" speedFactor="1.01" vaporized=""/>
    <tripinfo id="NS.2" depart="3.00" departLane="gneE2_0" departPos="5.10" departSpeed="10.47" departDelay="0.00" arrival="167.00" arrivalLane="-gneE4_0" arrivalPos="780.06" arrivalSpeed="13.36" duration="164.00" routeLength="2169.05" waitingTime="0.00" waitingCount="0" stopTime="0.00" timeLoss="13.62" rerouteNo="1" devices="tripinfo_NS.2 routing_NS.2" vType="DEFAULT_VEHTYPE" speedFactor="1.04" vaporized=""/>
    <tripinfo id="NS.3" depart="4.00" departLane="gneE2_0" departPos="5.10" departSpeed="7.27" departDelay="0.00" arrival="168.00" arrivalLane="-gneE4_0" arrivalPos="780.06" arrivalSpeed="14.54" duration="164.00" routeLength="2169.05" waitingTime="0.00" waitingCount="0" stopTime="0.00" timeLoss="23.22" rerouteNo="1" devices="tripinfo_NS.3 routing_NS.3" vType="DEFAULT_VEHTYPE" speedFactor="1.11" vaporized=""/>
    <tripinfo id="WN.7" depart="132.00" departLane="-51812054_1" departPos="5.10" departSpeed="13.57" departDelay="0.00" arrival="172.00" arrivalLane="554747354_1" arrivalPos="141.46" arrivalSpeed="13.12" duration="40.00" routeLength="516.22" waitingTime="0.00" waitingCount="0" stopTime="0.00" timeLoss="1.94" rerouteNo="1" devices="tripinfo_WN.7 routing_WN.7" vType="DEFAULT_VEHTYPE" speedFactor="0.98" vaporized=""/>
    <tripinfo id="NW.1" depart="19.00" departLane="gneE2_0" departPos="5.10" departSpeed="10.09" departDelay="0.00" arrival="193.00" arrivalLane="51812054_1" arrivalPos="107.60" arrivalSpeed="13.54" duration="174.00" routeLength="1381.92" waitingTime="59.00" waitingCount="1" stopTime="0.00" timeLoss="75.36" rerouteNo="1" devices="tripinfo_NW.1 routing_NW.1" vType="DEFAULT_VEHTYPE" speedFactor="1.01" vaporized=""/>
    <tripinfo id="SN.1" depart="21.00" departLane="gneE4_0" departPos="5.10" departSpeed="13.60" departDelay="0.00" arrival="193.00" arrivalLane="554747354_1" arrivalPos="141.46" arrivalSpeed="12.77" duration="172.00" routeLength="1294.40" waitingTime="66.00" waitingCount="1" stopTime="0.00" timeLoss="76.68" rerouteNo="1" devices="tripinfo_SN.1 routing_SN.1" vType="DEFAULT_VEHTYPE" speedFactor="0.98" vaporized=""/>
    <tripinfo id="SN.2" depart="22.00" departLane="gneE4_0" departPos="5.10" departSpeed="10.56" departDelay="0.00" arrival="195.00" arrivalLane="554747354_1" arrivalPos="141.46" arrivalSpeed="14.24" duration="173.00" routeLength="1294.40" waitingTime="66.00" waitingCount="1" stopTime="0.00" timeLoss="82.65" rerouteNo="1" devices="tripinfo_SN.2 routing_SN.2" vType="DEFAULT_VEHTYPE" speedFactor="1.04" vaporized=""/>
    <tripinfo id="NW.2" depart="29.00" departLane="gneE2_0" departPos="5.10" departSpeed="14.52" departDelay="0.00" arrival="195.00" arrivalLane="51812054_1" arrivalPos="107.60" arrivalSpeed="14.35" duration="166.00" routeLength="1381.92" waitingTime="59.00" waitingCount="1" stopTime="0.00" timeLoss="70.49" rerouteNo="1" devices="tripinfo_NW.2 routing_NW.2" vType="DEFAULT_VEHTYPE" speedFactor="1.05" vaporized=""/>
    <tripinfo id="SN.3" depart="25.00" departLane="gneE4_0" departPos="5.10" departSpeed="8.14" departDelay="0.00" arrival="197.00" arrivalLane="554747354_1" arrivalPos="141.46" arrivalSpeed="12.87" duration="172.00" routeLength="1294.40" waitingTime="53.00" waitingCount="1" stopTime="0.00" timeLoss="72.09" rerouteNo="1" devices="tripinfo_SN.3 routing_SN.3" vType="DEFAULT_VEHTYPE" speedFactor="0.94" vaporized=""/>
    <tripinfo id="SN.4" depart="26.00" departLane="gneE4_0" departPos="5.10" departSpeed="3.13" departDelay="0.00" arrival="199.00" arrivalLane="554747354_1" arrivalPos="141.46" arrivalSpeed="13.99" duration="173.00" routeLength="1294.40" waitingTime="52.00" waitingCount="1" stopTime="0.00" timeLoss="84.01" rerouteNo="1" devices="tripinfo_SN.4 routing_SN.4" vType="DEFAULT_VEHTYPE" speedFactor="1.06" vaporized=""/>
    <tripinfo id="NW.3" depart="36.00" departLane="gneE2_0" departPos="5.10" departSpeed="12.09" departDelay="0.00" arrival="201.00" arrivalLane="51812054_1" arrivalPos="107.60" arrivalSpeed="11.37" duration="165.00" routeLength="1381.92" waitingTime="38.00" waitingCount="1" stopTime="0.00" timeLoss="50.18" rerouteNo="1" devices="tripinfo_NW.3 routing_NW.3" vType="DEFAULT_VEHTYPE" speedFactor="0.87" vaporized=""/>
    <tripinfo id="SN.5" depart="29.00" departLane="gneE4_0" departPos="5.10" departSpeed="5.54" departDelay="2.00" arrival="203.00" arrivalLane="554747354_1" arrivalPos="141.46" arrivalSpeed="11.32" duration="174.00" routeLength="1294.40" waitingTime="50.00" waitingCount="1" stopTime="0.00" timeLoss="64.80" rerouteNo="1" devices="tripinfo_SN.5 routing_SN.5" vType="DEFAULT_VEHTYPE" speedFactor="0.86" vaporized=""/>
    <tripinfo id="NW.4" depart="54.00" departLane="gneE2_0" departPos="5.10" departSpeed="16.94" departDelay="0.00" arrival="203.00" arrivalLane="51812054_1" arrivalPos="107.60" arrivalSpeed="14.96" duration="149.00" routeLength="1381.92" waitingTime="37.00" waitingCount="1" stopTime="0.00" timeLoss="66.67" rerouteNo="1" devices="tripinfo_NW.4 routing_NW.4" vType="DEFAULT_VEHTYPE" speedFactor="1.22" vaporized=""/>
    <tripinfo id="SN.6" depart="38.00" departLane="gneE4_0" departPos="5.10" departSpeed="14.25" departDelay="0.00" arrival="204.00" arrivalLane="554747354_1" arrivalPos="141.46" arrivalSpeed="13.70" duration="166.00" routeLength="1294.40" waitingTime="47.00" waitingCount="1" stopTime="0.00" timeLoss="74.94" rerouteNo="1" devices="tripinfo_SN.6 routing_SN.6" vType="DEFAULT_VEHTYPE" speedFactor="1.03" vaporized=""/>
    <tripinfo id="SN.7" depart="40.00" departLane="gneE4_0" departPos="5.10" departSpeed="6.36" departDelay="1.00" arrival="206.00" arrivalLane="554747354_1" arrivalPos="141.46" arrivalSpeed="13.47" duration="166.00" routeLength="1294.40" waitingTime="46.00" waitingCount="1" stopTime="0.00" timeLoss="77.74" rerouteNo="1" devices="tripinfo_SN.7 routing_SN.7" vType="DEFAULT_VEHTYPE" speedFactor="1.06" vaporized=""/>
    <tripinfo id="SN.9" depart="44.00" departLane="gneE4_0" departPos="5.10" departSpeed="8.67" departDelay="0.00" arrival="208.00" arrivalLane="554747354_1" arrivalPos="141.46" arrivalSpeed="12.73" duration="164.00" routeLength="1294.40" waitingTime="43.00" waitingCount="1" stopTime="0.00" timeLoss="66.24" rerouteNo="1" devices="tripinfo_SN.9 routing_SN.9" vType="DEFAULT_VEHTYPE" speedFactor="0.96" vaporized=""/>
    <tripinfo id="SN.8" depart="43.00" departLane="gneE4_0" departPos="5.10" departSpeed="12.43" departDelay="0.00" arrival="210.00" arrivalLane="554747354_1" arrivalPos="141.46" arrivalSpeed="15.00" duration="167.00" routeLength="1294.40" waitingTime="45.00" waitingCount="1" stopTime="0.00" timeLoss="81.99" rerouteNo="1" devices="tripinfo_SN.8 routing_SN.8" vType="DEFAULT_VEHTYPE" speedFactor="1.11" vaporized=""/>
    <tripinfo id="SN.11" depart="50.00" departLane="gneE4_0" departPos="5.10" departSpeed="10.23" departDelay="0.00" arrival="211.00" arrivalLane="554747354_1" arrivalPos="141.46" arrivalSpeed="15.04" duration="161.00" routeLength="1294.40" waitingTime="41.00" waitingCount="1" stopTime="0.00" timeLoss="77.06" rerouteNo="1" devices="tripinfo_SN.11 routing_SN.11" vType="DEFAULT_VEHTYPE" speedFactor="1.11" vaporized=""/>
    <tripinfo id="SN.10" depart="49.00" departLane="gneE4_0" departPos="5.10" departSpeed="13.39" departDelay="0.00" arrival="213.00" arrivalLane="554747354_1" arrivalPos="141.46" arrivalSpeed="12.90" duration="164.00" routeLength="1294.40" waitingTime="44.00" waitingCount="1" stopTime="0.00" timeLoss="67.32" rerouteNo="1" devices="tripinfo_SN.10 routing_SN.10" vType="DEFAULT_VEHTYPE" speedFactor="0.96" vaporized=""/>
    <tripinfo id="SE.0" depart="80.00" departLane="gneE4_0" departPos="5.10" departSpeed="11.06" departDelay="0.00" arrival="214.00" arrivalLane="-51812135_1" arrivalPos="90.22" arrivalSpeed="8.63" duration="134.00" routeLength="1216.48" waitingTime="15.00" waitingCount="1" stopTime="0.00" timeLoss="40.98" rerouteNo="1" devices="tripinfo_SE.0 routing_SE.0" vType="DEFAULT_VEHTYPE" speedFactor="1.06" vaporized=""/>
    <tripinfo id="SN.13" depart="56.00" departLane="gneE4_0" departPos="5.10" departSpeed="14.76" departDelay="0.00" arrival="215.00" arrivalLane="554747354_1" arrivalPos="141.46" arrivalSpeed="14.93" duration="159.00" routeLength="1294.40" waitingTime="37.00" waitingCount="1" stopTime="0.00" timeLoss="74.32" rerouteNo="1" devices="tripinfo_SN.13 routing_SN.13" vType="DEFAULT_VEHTYPE" speedFactor="1.11" vaporized=""/>
    <tripinfo id="SN.12" depart="54.00" departLane="gneE4_0" departPos="5.10" departSpeed="13.92" departDelay="0.00" arrival="217.00" arrivalLane="554747354_1" arrivalPos="141.46" arrivalSpeed="13.78" duration="163.00" routeLength="1294.40" waitingTime="42.00" waitingCount="1" stopTime="0.00" timeLoss="69.55" rerouteNo="1" devices="tripinfo_SN.12 routing_SN.12" vType="DEFAULT_VEHTYPE" speedFactor="1.00" vaporized=""/>
    <tripinfo id="SN.15" depart="66.00" departLane="gneE4_0" departPos="5.10" departSpeed="15.17" departDelay="0.00" arrival="219.00" arrivalLane="554747354_1" arrivalPos="141.46" arrivalSpeed="15.05" duration="153.00" routeLength="1294.40" waitingTime="29.00" waitingCount="1" stopTime="0.00" timeLoss="66.95" rerouteNo="1" devices="tripinfo_SN.15 routing_SN.15" vType="DEFAULT_VEHTYPE" speedFactor="1.09" vaporized=""/>
    <tripinfo id="SN.14" depart="61.00" departLane="gneE4_0" departPos="5.10" departSpeed="9.18" departDelay="0.00" arrival="222.00" arrivalLane="554747354_1" arrivalPos="141.46" arrivalSpeed="12.40" duration="161.00" routeLength="1294.40" waitingTime="32.00" waitingCount="1" stopTime="0.00" timeLoss="64.55" rerouteNo="1" devices="tripinfo_SN.14 routing_SN.14" vType="DEFAULT_VEHTYPE" speedFactor="0.97" vaporized=""/>
    <tripinfo id="SN.17" depart="78.00" departLane="gneE4_0" departPos="5.10" departSpeed="9.95" departDelay="0.00" arrival="224.00" arrivalLane="554747354_1" arrivalPos="141.46" arrivalSpeed="14.77" duration="146.00" routeLength="1294.40" waitingTime="16.00" waitingCount="1" stopTime="0.00" timeLoss="62.68" rerouteNo="1" devices="tripinfo_SN.17 routing_SN.17" vType="DEFAULT_VEHTYPE" speedFactor="1.13" vaporized=""/>
    <tripinfo id="SW.2" depart="23.00" departLane="gneE4_0" departPos="5.10" departSpeed="7.37" departDelay="1.00" arrival="227.00" arrivalLane="51812054_1" arrivalPos="107.60" arrivalSpeed="11.23" duration="204.00" routeLength="1323.06" waitingTime="77.00" waitingCount="2" stopTime="0.00" timeLoss="92.88" rerouteNo="1" devices="tripinfo_SW.2 routing_SW.2" vType="DEFAULT_VEHTYPE" speedFactor="0.86" vaporized=""/>
    <tripinfo id="SW.3" depart="35.00" departLane="gneE4_0" departPos="5.10" departSpeed="14.24" departDelay="0.00" arrival="228.00" arrivalLane="51812054_1" arrivalPos="107.60" arrivalSpeed="13.95" duration="193.00" routeLength="1323.06" waitingTime="69.00" waitingCount="2" stopTime="0.00" timeLoss="99.99" rerouteNo="1" devices="tripinfo_SW.3 routing_SW.3" vType="DEFAULT_VEHTYPE" speedFactor="1.03" vaporized=""/>
    <tripinfo id="SW.4" depart="39.00" departLane="gneE4_0" departPos="5.10" departSpeed="10.96" departDelay="1.00" arrival="230.00" arrivalLane="51812054_1" arrivalPos="107.60" arrivalSpeed="13.94" duration="191.00" routeLength="1323.06" waitingTime="67.00" waitingCount="2" stopTime="0.00" timeLoss="100.45" rerouteNo="1" devices="tripinfo_SW.4 routing_SW.4" vType="DEFAULT_VEHTYPE" speedFactor="1.06" vaporized=""/>
    <tripinfo id="SW.5" depart="60.00" departLane="gneE4_0" departPos="5.10" departSpeed="12.64" departDelay="0.00" arrival="232.00" arrivalLane="51812054_1" arrivalPos="107.60" arrivalSpeed="12.25" duration="172.00" routeLength="1323.06" waitingTime="48.00" waitingCount="2" stopTime="0.00" timeLoss="67.21" rerouteNo="1" devices="tripinfo_SW.5 routing_SW.5" vType="DEFAULT_VEHTYPE" speedFactor="0.91" vaporized=""/>
    <tripinfo id="SW.6" depart="67.00" departLane="gneE4_0" departPos="5.10" departSpeed="12.33" departDelay="0.00" arrival="234.00" arrivalLane="51812054_1" arrivalPos="107.60" arrivalSpeed="14.96" duration="167.00" routeLength="1323.06" waitingTime="42.00" waitingCount="2" stopTime="0.00" timeLoss="86.61" rerouteNo="1" devices="tripinfo_SW.6 routing_SW.6" vType="DEFAULT_VEHTYPE" speedFactor="1.19" vaporized=""/>
    <tripinfo id="SW.7" depart="83.00" departLane="gneE4_0" departPos="5.10" departSpeed="7.56" departDelay="1.00" arrival="236.00" arrivalLane="51812054_1" arrivalPos="107.60" arrivalSpeed="12.48" duration="153.00" routeLength="1323.06" waitingTime="27.00" waitingCount="2" stopTime="0.00" timeLoss="55.14" rerouteNo="1" devices="tripinfo_SW.7 routing_SW.7" vType="DEFAULT_VEHTYPE" speedFactor="0.98" vaporized=""/>
    <tripinfo id="SN.19" depart="89.00" departLane="gneE4_0" departPos="5.10" departSpeed="15.34" departDelay="0.00" arrival="239.00" arrivalLane="554747354_1" arrivalPos="141.46" arrivalSpeed="14.18" duration="150.00" routeLength="1294.40" waitingTime="28.00" waitingCount="2" stopTime="0.00" timeLoss="65.19" rerouteNo="1" devices="tripinfo_SN.19 routing_SN.19" vType="DEFAULT_VEHTYPE" speedFactor="1.10" vaporized=""/>
    <tripinfo id="WS.1" depart="81.00" departLane="-51812054_1" departPos="5.10" departSpeed="14.07" departDelay="0.00" arrival="240.00" arrivalLane="-gneE4_0" arrivalPos="780.06" arrivalSpeed="13.63" duration="159.00" routeLength="1308.12" waitingTime="48.00" waitingCount="2" stopTime="0.00" timeLoss="65.61" rerouteNo="1" devices="tripinfo_WS.1 routing_WS.1" vType="DEFAULT_VEHTYPE" speedFactor="1.01" vaporized=""/>
    <tripinfo id="WS.0" depart="55.00" departLane="-51812054_1" departPos="5.10" departSpeed="16.05" departDelay="0.00" arrival="242.00" arrivalLane="-gneE4_0" arrivalPos="780.06" arrivalSpeed="15.01" duration="187.00" routeLength="1308.12" waitingTime="80.00" waitingCount="2" stopTime="0.00" timeLoss="104.76" rerouteNo="1" devices="tripinfo_WS.0 routing_WS.0" vType="DEFAULT_VEHTYPE" speedFactor="1.16" vaporized=""/>
    <tripinfo id="WS.3" depart="95.00" departLane="-51812054_1" departPos="5.10" departSpeed="15.01" departDelay="0.00" arrival="243.00" arrivalLane="-gneE4_0" arrivalPos="780.06" arrivalSpeed="13.76" duration="148.00" routeLength="1308.12" waitingTime="38.00" waitingCount="2" stopTime="0.00" timeLoss="60.85" rerouteNo="1" devices="tripinfo_WS.3 routing_WS.3" vType="DEFAULT_VEHTYPE" speedFactor="1.08" vaporized=""/>
    <tripinfo id="SN.16" depart="77.00" departLane="gneE4_0" departPos="5.10" departSpeed="12.71" departDelay="0.00" arrival="244.00" arrivalLane="554747354_1" arrivalPos="141.46" arrivalSpeed="11.92" duration="167.00" routeLength="1294.40" waitingTime="37.00" waitingCount="2" stopTime="0.00" timeLoss="64.72" rerouteNo="1" devices="tripinfo_SN.16 routing_SN.16" vType="DEFAULT_VEHTYPE" speedFactor="0.92" vaporized=""/>
    <tripinfo id="SN.20" depart="90.00" departLane="gneE4_0" departPos="5.10" departSpeed="11.96" departDelay="0.00" arrival="246.00" arrivalLane="554747354_1" arrivalPos="141.46" arrivalSpeed="13.02" duration="156.00" routeLength="1294.40" waitingTime="27.00" waitingCount="2" stopTime="0.00" timeLoss="64.76" rerouteNo="1" devices="tripinfo_SN.20 routing_SN.20" vType="DEFAULT_VEHTYPE" speedFactor="1.03" vaporized=""/>
    <tripinfo id="SN.18" depart="81.00" departLane="gneE4_0" departPos="5.10" departSpeed="6.95" departDelay="0.00" arrival="248.00" arrivalLane="554747354_1" arrivalPos="141.46" arrivalSpeed="12.40" duration="167.00" routeLength="1294.40" waitingTime="30.00" waitingCount="2" stopTime="0.00" timeLoss="69.66" rerouteNo="1" devices="tripinfo_SN.18 routing_SN.18" vType="DEFAULT_VEHTYPE" speedFactor="0.97" vaporized=""/>
    <tripinfo id="WN.8" depart="162.00" departLane="-51812054_1" departPos="5.10" departSpeed="14.64" departDelay="0.00" arrival="249.00" arrivalLane="554747354_1" arrivalPos="141.46" arrivalSpeed="14.52" duration="87.00" routeLength="516.22" waitingTime="37.00" waitingCount="1" stopTime="0.00" timeLoss="51.45" rerouteNo="1" devices="tripinfo_WN.8 routing_WN.8" vType="DEFAULT_VEHTYPE" speedFactor="1.05" vaporized=""/>
    <tripinfo id="WN.9" depart="195.00" departLane="-51812054_1" departPos="5.10" departSpeed="14.38" departDelay="0.00" arrival="251.00" arrivalLane="554747354_1" arrivalPos="141.46" arrivalSpeed="14.29" duration="56.00" routeLength="516.22" waitingTime="5.00" waitingCount="1" stopTime="0.00" timeLoss="19.65" rerouteNo="1" devices="tripinfo_WN.9 routing_WN.9" vType="DEFAULT_VEHTYPE" speedFactor="1.04" vaporized=""/>
    <tripinfo id="WS.2" depart="90.00" departLane="-51812054_1" departPos="5.10" departSpeed="13.27" departDelay="0.00" arrival="252.00" arrivalLane="-gneE4_0" arrivalPos="780.06" arrivalSpeed="12.27" duration="162.00" routeLength="1308.12" waitingTime="42.00" waitingCount="2" stopTime="0.00" timeLoss="63.33" rerouteNo="1" devices="tripinfo_WS.2 routing_WS.2" vType="DEFAULT_VEHTYPE" speedFactor="0.96" vaporized=""/>
    <tripinfo id="WS.5" depart="111.00" departLane="-51812054_1" departPos="5.10" departSpeed="14.75" departDelay="0.00" arrival="254.00" arrivalLane="-gneE4_0" arrivalPos="780.06" arrivalSpeed="13.94" duration="143.00" routeLength="1308.12" waitingTime="24.00" waitingCount="2" stopTime="0.00" timeLoss="53.83" rerouteNo="1" devices="tripinfo_WS.5 routing_WS.5" vType="DEFAULT_VEHTYPE" speedFactor="1.06" vaporized=""/>
    <tripinfo id="WS.4" depart="104.00" departLane="-51812054_1" departPos="5.10" departSpeed="14.76" departDelay="0.00" arrival="256.00" arrivalLane="-gneE4_0" arrivalPos="780.06" arrivalSpeed="14.00" duration="152.00" routeLength="1308.12" waitingTime="34.00" waitingCount="3" stopTime="0.00" timeLoss="62.57" rerouteNo="1" devices="tripinfo_WS.4 routing_WS.4" vType="DEFAULT_VEHTYPE" speedFactor="1.06" vaporized=""/>
    <tripinfo id="SN.21" depart="91.00" departLane="gneE4_0" departPos="5.10" departSpeed="9.18" departDelay="0.00" arrival="257.00" arrivalLane="554747354_1" arrivalPos="141.46" arrivalSpeed="10.16" duration="166.00" routeLength="1294.40" waitingTime="18.00" waitingCount="2" stopTime="0.00" timeLoss="45.97" rerouteNo="1" devices="tripinfo_SN.21 routing_SN.21" vType="DEFAULT_VEHTYPE" speedFactor="0.78" vaporized=""/>
    <tripinfo id="WE.0" depart="216.00" departLane="-51812054_1" departPos="5.10" departSpeed="16.24" departDelay="0.00" arrival="260.00" arrivalLane="-51812135_1" arrivalPos="90.22" arrivalSpeed="8.56" duration="44.00" routeLength="496.67" waitingTime="0.00" waitingCount="0" stopTime="0.00" timeLoss="4.74" rerouteNo="1" devices="tripinfo_WE.0 routing_WE.0" vType="DEFAULT_VEHTYPE" speedFactor="1.17" vaporized=""/>
    <tripinfo id="WS.6" depart="118.00" departLane="-51812054_1" departPos="5.10" departSpeed="12.74" departDelay="0.00" arrival="263.00" arrivalLane="-gneE4_0" arrivalPos="780.06" arrivalSpeed="11.90" duration="145.00" routeLength="1308.12" waitingTime="17.00" waitingCount="1" stopTime="0.00" timeLoss="42.01" rerouteNo="1" devices="tripinfo_WS.6 routing_WS.6" vType="DEFAULT_VEHTYPE" speedFactor="0.92" vaporized=""/>
    <tripinfo id="SN.22" depart="101.00" departLane="gneE4_0" departPos="5.10" departSpeed="14.63" departDelay="0.00" arrival="272.00" arrivalLane="554747354_1" arrivalPos="141.46" arrivalSpeed="14.00" duration="171.00" routeLength="1294.40" waitingTime="51.00" waitingCount="1" stopTime="0.00" timeLoss="82.11" rerouteNo="1" devices="tripinfo_SN.22 routing_SN.22" vType="DEFAULT_VEHTYPE" speedFactor="1.05" vaporized=""/>
    <tripinfo id="SN.23" depart="102.00" departLane="gneE4_0" departPos="5.10" departSpeed="11.68" departDelay="0.00" arrival="277.00" arrivalLane="554747354_1" arrivalPos="141.46" arrivalSpeed="11.41" duration="175.00" routeLength="1294.40" waitingTime="49.00" waitingCount="1" stopTime="0.00" timeLoss="63.77" rerouteNo="1" devices="tripinfo_SN.23 routing_SN.23" vType="DEFAULT_VEHTYPE" speedFactor="0.84" vaporized=""/>
    <tripinfo id="WS.7" depart="126.00" departLane="-51812054_1" departPos="5.10" departSpeed="11.21" departDelay="0.00" arrival="277.00" arrivalLane="-gneE4_0" arrivalPos="780.06" arrivalSpeed="10.63" duration="151.00" routeLength="1308.12" waitingTime="12.00" waitingCount="1" stopTime="0.00" timeLoss="34.24" rerouteNo="1" devices="tripinfo_WS.7 routing_WS.7" vType="DEFAULT_VEHTYPE" speedFactor="0.81" vaporized=""/>
    <tripinfo id="NS.4" depart="14.00" departLane="gneE2_0" departPos="5.10" departSpeed="14.20" departDelay="0.00" arrival="279.00" arrivalLane="-gneE4_0" arrivalPos="780.06" arrivalSpeed="13.87" duration="265.00" routeLength="2169.05" waitingTime="72.00" waitingCount="2" stopTime="0.00" timeLoss="111.69" rerouteNo="1" devices="tripinfo_NS.4 routing_NS.4" vType="DEFAULT_VEHTYPE" speedFactor="1.02" vaporized=""/>
    <tripinfo id="SN.24" depart="105.00" departLane="gneE4_0" departPos="5.10" departSpeed="12.52" departDelay="0.00" arrival="279.00" arrivalLane="554747354_1" arrivalPos="141.46" arrivalSpeed="11.48" duration="174.00" routeLength="1294.40" waitingTime="48.00" waitingCount="1" stopTime="0.00" timeLoss="70.04" rerouteNo="1" devices="tripinfo_SN.24 routing_SN.24" vType="DEFAULT_VEHTYPE" speedFactor="0.90" vaporized=""/>
    <tripinfo id="NW.5" depart="111.00" departLane="gneE2_0" departPos="5.10" departSpeed="10.97" departDelay="0.00" arrival="279.00" arrivalLane="51812054_1" arrivalPos="107.60" arrivalSpeed="10.69" duration="168.00" routeLength="1381.92" waitingTime="29.00" waitingCount="1" stopTime="0.00" timeLoss="41.88" rerouteNo="1" devices="tripinfo_NW.5 routing_NW.5" vType="DEFAULT_VEHTYPE" speedFactor="0.79" vaporized=""/>
    <tripinfo id="SN.25" depart="109.00" departLane="gneE4_0" departPos="5.10" departSpeed="15.67" departDelay="0.00" arrival="280.00" arrivalLane="554747354_1" arrivalPos="141.46" arrivalSpeed="13.59" duration="171.00" routeLength="1294.40" waitingTime="48.00" waitingCount="1" stopTime="0.00" timeLoss="88.41" rerouteNo="1" devices="tripinfo_SN.25 routing_SN.25" vType="DEFAULT_VEHTYPE" speedFactor="1.13" vaporized=""/>
    <tripinfo id="NS.5" depart="18.00" departLane="gneE2_0" departPos="5.10" departSpeed="13.25" departDelay="0.00" arrival="281.00" arrivalLane="-gneE4_0" arrivalPos="780.06" arrivalSpeed="12.17" duration="263.00" routeLength="2169.05" waitingTime="63.00" waitingCount="1" stopTime="0.00" timeLoss="98.76" rerouteNo="1" devices="tripinfo_NS.5 routing_NS.5" vType="DEFAULT_VEHTYPE" speedFactor="0.95" vaporized=""/>